# vtk DataFile Version 3.0
./h5/cb400_sp.vtk
ASCII
DATASET UNSTRUCTURED_GRID

POINTS 0 float

POINT_DATA 0
SCALARS radius float
LOOKUP_TABLE default
