# vtk DataFile Version 3.0
./h5/cb2200_sp.vtk
ASCII
DATASET UNSTRUCTURED_GRID

POINTS 44 float
-9.024936e+00 -1.309557e+00 3.522044e+00 
1.977385e+00 -6.971021e+00 6.569150e+00 
-5.392880e+00 1.360598e+00 -7.570107e+00 
-3.956865e+00 1.006779e+00 -7.750612e+00 
-1.217604e+01 1.165961e+01 -2.398604e+01 
-1.270789e+01 1.047796e+01 -2.329806e+01 
-1.719239e+01 -1.106154e+01 -1.638199e+01 
-2.143690e+01 1.527365e+00 -1.407947e+01 
-1.492375e+00 1.642170e+01 1.957632e+01 
-1.421292e+01 -2.904157e+00 -9.220934e+00 
-1.180254e+01 -1.372295e+01 -7.617538e+00 
2.270170e+00 3.484402e+00 -1.630531e+01 
7.948440e+00 -1.731773e+01 -8.986630e-01 
2.245550e+00 3.899396e+00 -1.560415e+01 
-1.499996e+01 7.999579e+00 -1.627610e+01 
-1.642032e+01 -1.053685e+01 -1.544792e+01 
-2.437411e+01 -4.323799e+00 -4.405212e+00 
-1.371532e+01 1.157243e+01 -1.327982e+01 
-2.624083e-01 7.559586e+00 -1.208386e+01 
1.892752e-02 8.629914e+00 -1.198818e+01 
-1.862186e+01 -1.228788e+01 -1.812461e+01 
-1.113774e+01 -1.957635e+00 -1.004781e+01 
-1.637390e+01 -2.255589e-02 -9.635709e+00 
-2.653141e+00 5.541000e+00 4.538045e+00 
-9.861593e+00 1.460105e+01 2.207019e+01 
-1.520200e+01 1.442110e+01 -1.475332e+01 
1.794286e+00 -2.202692e+00 -2.970269e+01 
-2.370958e+01 1.356423e+00 -2.403939e+01 
1.099491e+01 7.320359e+00 -1.047304e+01 
-1.969417e+01 9.007846e+00 -2.116552e+01 
2.117244e+00 3.806381e+00 5.405303e+00 
-2.279203e+01 -4.780578e+00 -1.092295e+01 
-2.390435e+01 -1.877300e-01 -1.219990e+01 
-1.240595e+01 -7.740187e+00 -1.276514e+01 
-1.245273e+00 2.731973e-03 9.409425e+00 
-4.607878e+00 4.381003e+00 -9.776698e+00 
-1.285241e+01 -1.336976e+01 -8.270938e+00 
-7.926521e+00 2.242632e+00 -6.162903e+00 
-1.110980e+01 1.088123e+01 -1.599169e+01 
1.535126e+00 4.309182e+00 7.772457e+00 
-9.257315e+00 1.058830e+01 2.311389e+01 
-4.099437e+00 7.036210e+00 5.699107e+00 
-3.172528e+00 -1.595713e-03 -9.302881e+00 
-1.259133e+01 -8.166826e+00 -8.756753e+00 

POINT_DATA 44
SCALARS radius float
LOOKUP_TABLE default
1.0
1.0
1.0
1.0
1.0
1.0
1.0
1.0
1.0
1.0
1.0
1.0
1.0
1.0
1.0
1.0
1.0
1.0
1.0
1.0
1.0
1.0
1.0
1.0
1.0
1.0
1.0
1.0
1.0
1.0
1.0
1.0
1.0
1.0
1.0
1.0
1.0
1.0
1.0
1.0
1.0
1.0
1.0
1.0
