# vtk DataFile Version 3.0
./h5/cb2800_sp.vtk
ASCII
DATASET UNSTRUCTURED_GRID

POINTS 120 float
-6.412613e+00 -4.868659e+00 -1.263945e+00 
3.433350e+00 -1.340368e+00 8.685179e+00 
-5.929852e+00 1.806582e+00 -9.643022e+00 
-4.872424e+00 1.012206e+00 -9.996684e+00 
-1.340745e+01 1.335094e+01 -2.328075e+01 
-1.304962e+01 1.193723e+01 -2.206384e+01 
-2.307225e+01 -9.716626e+00 -1.701439e+01 
-2.058257e+01 2.351839e+00 -1.622929e+01 
-3.014378e+00 1.877508e+01 1.805793e+01 
-1.470426e+01 -1.558104e+00 -1.084832e+01 
-1.085152e+01 -1.416777e+01 -1.196719e+01 
-3.937578e+00 5.179297e+00 -1.935982e+01 
7.628770e+00 -1.594900e+01 -1.254089e+00 
-4.027515e+00 5.233421e+00 -1.938670e+01 
-1.318364e+01 8.845960e+00 -1.670602e+01 
-2.283076e+01 -8.964494e+00 -1.640818e+01 
-2.355879e+01 -5.336860e+00 -6.990146e+00 
-1.311081e+01 1.373429e+01 -1.532200e+01 
-2.687304e-02 6.507080e+00 -1.431817e+01 
6.111658e-01 7.597423e+00 -1.386210e+01 
-2.512536e+01 -1.146008e+01 -1.873806e+01 
-1.121598e+01 -2.073499e+00 -1.164157e+01 
-1.712957e+01 2.496060e+00 -1.012938e+01 
-8.396953e-01 7.805758e+00 2.987715e+00 
-1.126113e+01 1.469224e+01 2.075557e+01 
-1.466692e+01 1.753360e+01 -1.582350e+01 
-1.621058e+00 -2.937524e+00 -3.254336e+01 
-2.349719e+01 2.012736e+00 -2.596995e+01 
8.585091e+00 1.098901e+01 -1.625031e+01 
-2.111403e+01 1.266407e+01 -2.235338e+01 
2.426554e+00 6.827077e+00 3.184446e+00 
-2.079317e+01 -5.889241e+00 -1.380216e+01 
-2.244351e+01 8.619280e-01 -1.421995e+01 
-1.764458e+01 -4.593785e+00 -1.271519e+01 
-2.163935e-01 4.294628e+00 8.971736e+00 
-3.498124e+00 2.685584e+00 -1.300136e+01 
-1.167978e+01 -1.419233e+01 -1.229430e+01 
-9.787405e+00 3.463845e+00 -7.941762e+00 
-1.021938e+01 1.228945e+01 -1.742144e+01 
2.069637e+00 8.205211e+00 6.171466e+00 
-9.691631e+00 9.573706e+00 2.266003e+01 
-3.084593e+00 9.544973e+00 5.129814e+00 
-1.178417e+00 -2.216229e+00 -1.155148e+01 
-1.345225e+01 -7.691243e+00 -1.047594e+01 
-4.868797e+00 1.622905e+01 2.141330e+01 
-1.394203e+01 1.238838e+01 -2.055708e+01 
-1.587831e+01 3.175564e+00 -1.745730e+01 
-2.032960e+01 3.896265e+00 -2.603522e+01 
-6.870952e+00 -5.548352e+00 -1.488498e+00 
-1.287929e+01 -2.237235e+01 -1.125414e+01 
-1.879990e+01 3.505821e+00 -2.266603e+01 
6.244890e-01 4.115389e+00 -1.393306e+01 
1.639396e+00 1.991743e+01 1.853207e+01 
-1.246196e+01 1.304643e+01 -1.573510e+01 
-1.401849e+00 4.528138e+00 -1.374031e+01 
-1.817521e+01 -5.208851e+00 -1.259065e+01 
-1.244069e+01 7.249619e+00 -1.673813e+01 
-9.907955e+00 -1.586848e+00 -1.074117e+01 
-2.310492e+01 5.041242e+00 -2.453470e+01 
1.456285e+00 4.270401e+00 -1.255530e+00 
-2.270861e+00 -3.189023e+00 -3.284582e+01 
-2.048060e+01 4.787452e+00 -1.622662e+01 
-2.039146e+01 4.315569e+00 -2.677976e+01 
-7.370121e+00 4.316721e+00 -1.166815e+01 
-4.493405e+00 -5.228888e+00 1.571636e+00 
-3.448685e-01 3.881410e+00 9.013672e+00 
5.560668e-01 7.383991e+00 -1.397291e+01 
-2.106235e+01 1.475870e+00 -1.572172e+01 
-1.422914e+01 4.738709e+00 -1.668315e+01 
1.626171e+00 8.622383e+00 5.991554e+00 
-2.046749e+01 5.931377e+00 -1.948429e+01 
-1.034078e+01 -5.251824e+00 -6.555216e+00 
-7.794449e-02 7.705307e+00 3.291066e+00 
-8.289455e+00 6.255048e+00 2.338180e+01 
-1.756603e+01 2.176252e+01 7.582375e-01 
-1.820441e+01 -7.615235e+00 -3.598363e+01 
1.498201e+00 9.434309e+00 -1.291684e+01 
-2.080758e+00 7.353242e+00 -7.188708e+00 
-2.075296e+01 4.217627e+00 -1.616335e+01 
-2.124386e+01 6.505284e+00 -1.900580e+01 
-1.255458e+01 -6.580088e+00 -9.406073e+00 
-5.414365e+00 5.319798e+00 -1.577940e+01 
-1.403915e+01 -5.734351e+00 -1.122853e+01 
-1.452713e+01 1.748773e+01 -1.762289e+01 
7.919046e+00 4.411642e+00 -3.557128e+01 
2.309069e+01 8.172566e+00 3.559553e+00 
-1.360495e+01 -8.743662e-01 -1.084193e+01 
-1.712224e+01 5.251285e+00 -1.757359e+01 
-2.126800e+01 8.992679e+00 -2.361882e+01 
-6.714835e+00 1.129358e+01 -1.061631e+01 
-6.435124e+00 5.611669e+00 -1.512594e+01 
-2.441234e-02 1.382136e+01 7.148820e+00 
9.835463e+00 6.205424e-01 5.983413e+00 
-2.007932e+01 8.949779e+00 -2.296980e+01 
-1.234921e+01 -2.267272e+01 -1.118684e+01 
-2.331903e+01 4.669031e+00 -2.472979e+01 
2.448991e+00 -1.215655e+01 2.137074e+01 
4.280840e+00 3.963098e+00 9.761514e+00 
-1.981300e+01 7.050988e+00 -2.431053e+01 
-2.302203e+01 5.253561e+00 -1.729275e+01 
-1.560597e+01 -1.243187e+00 -2.502664e+01 
-2.184506e+01 5.362189e+00 -1.777520e+01 
1.065635e+01 9.298879e+00 -7.702772e+00 
-1.328838e+01 -1.391128e+01 -9.482878e+00 
-1.843158e+01 -1.368517e+01 -1.115101e+01 
-2.149132e+00 7.234920e+00 -3.036850e+01 
1.054565e+01 1.091236e+01 -1.628694e+01 
-5.460016e+00 1.567255e+01 2.221288e+01 
9.079927e-01 1.645462e+00 -1.319077e+01 
-1.243522e+01 -1.283509e+00 -1.123694e+01 
-1.414951e+01 7.384001e+00 -1.887609e+01 
-7.126840e+00 5.824597e+00 -1.501686e+01 
-9.942005e+00 -4.751359e+00 -6.069734e+00 
-8.138849e+00 -1.328463e+00 -3.217857e+00 
1.007096e+01 -1.563998e+01 -4.486694e+00 
-1.413622e+01 -2.882542e+00 -1.138003e+01 
-1.900315e+01 -7.898397e+00 -1.358738e+01 
-1.276491e+01 1.211484e-01 -9.140327e+00 
-7.290668e+00 2.948417e+00 -2.830514e-01 
-1.436044e+01 2.050141e+01 1.281331e+00 

POINT_DATA 120
SCALARS radius float
LOOKUP_TABLE default
1.0
1.0
1.0
1.0
1.0
1.0
1.0
1.0
1.0
1.0
1.0
1.0
1.0
1.0
1.0
1.0
1.0
1.0
1.0
1.0
1.0
1.0
1.0
1.0
1.0
1.0
1.0
1.0
1.0
1.0
1.0
1.0
1.0
1.0
1.0
1.0
1.0
1.0
1.0
1.0
1.0
1.0
1.0
1.0
1.0
1.0
1.0
1.0
1.0
1.0
1.0
1.0
1.0
1.0
1.0
1.0
1.0
1.0
1.0
1.0
1.0
1.0
1.0
1.0
1.0
1.0
1.0
1.0
1.0
1.0
1.0
1.0
1.0
1.0
1.0
1.0
1.0
1.0
1.0
1.0
1.0
1.0
1.0
1.0
1.0
1.0
1.0
1.0
1.0
1.0
1.0
1.0
1.0
1.0
1.0
1.0
1.0
1.0
1.0
1.0
1.0
1.0
1.0
1.0
1.0
1.0
1.0
1.0
1.0
1.0
1.0
1.0
1.0
1.0
1.0
1.0
1.0
1.0
1.0
1.0
